# vtk DataFile Version 3.0
3 D scalar data
ASCII
DATASET UNSTRUCTURED_GRID

POINTS 27 float
0 0 0
2 0 0
2 5 0
0 5 0
2 10 0
0 10 0
4 0 0
4 5 0
4 10 0
0 0 1
2 0 1
2 5 1
0 5 1
2 10 1
0 10 1
4 0 1
4 5 1
4 10 1
0 0 2
2 0 2
2 5 2
0 5 2
2 10 2
0 10 2
4 0 2
4 5 2
4 10 2

CELLS 8 72
8 0 1 2 3 9 10 11 12
8 3 2 4 5 12 11 13 14
8 1 6 7 2 10 15 16 11
8 2 7 8 4 11 16 17 13
8 9 10 11 12 18 19 20 21 
8 12 11 13 14 21 20 22 23
8 10 15 16 11 19 24 25 20
8 11 16 17 13 20 25 26 22

CELL_TYPES 8
12
12
12
12
12
12
12
12

POINT_DATA 27
SCALARS density float 1
LOOKUP_TABLE default
12 52 25 21 45 5 6 12 61
45 5 6 12 61 13 14 15 16
12 52 25 21 45 5 6 12 61

SCALARS temperature float 1
LOOKUP_TABLE default
1.0 2.0 2.0 1.0 2 3 4 5 6
3.0 4.0 4.0 3.0 7 8 9 10 11
0.12 0.12 1.0 1.0 12 13 14 15 16

CELL_DATA 8
SCALARS subdomains int 1
LOOKUP_TABLE default
0 0 1 1 2 2 3 3